 CRYSTAL
 PRIMVEC
.0000000 2.7418829 2.7418829
2.7418829 .0000000 2.7418829
2.7418829 2.7418829 .0000000
 PRIMCOORD
           2  1
  14  -.6854707 -.6854707 -.6854707
  14  .6854707 .6854707 .6854707
