 CRYSTAL
 PRIMVEC
-1.5948407 1.5948407 1.5948407
1.5948407 -1.5948407 1.5948407
1.5948407 1.5948407 -1.5948407
 PRIMCOORD
           1  1
  74  .0000000 .0000000 .0000000
 
