 CRYSTAL
 PRIMVEC
-1.5948406 1.5948406 1.5948406
1.5948406 -1.5948406 1.5948406
1.5948406 1.5948406 -1.5948406
 PRIMCOORD
           1  1
  74  .0000000 .0000000 .0000000

