 CRYSTAL
 PRIMVEC
3.1647500 .0000000 .0000000
.0000000 3.1647500 .0000000
.0000000 .0000000 3.1647500
 PRIMCOORD
           2  1
  74  .0000000 .0000000 .0000000
  74  1.5823750 1.5823750 1.5823750
 
