 CRYSTAL
 PRIMVEC
.0000000 2.7344466 2.7344466
2.7344466 .0000000 2.7344466
2.7344466 2.7344466 .0000000
 PRIMCOORD
           2  1
  14  .6836117 .6836117 .6836117
  14  -.6836117 -.6836117 -.6836117
