 CRYSTAL
 PRIMVEC
-3.1896800 3.1896800 3.1896800
3.1896800 -3.1896800 3.1896800
3.1896800 3.1896800 -3.1896800
 PRIMCOORD
           1  1
  74  .0000000 .0000000 .0000000
 
