 CRYSTAL
 PRIMVEC
.0000000 2.7595161 2.7595161
2.7595161 .0000000 2.7595161
2.7595161 2.7595161 .0000000
 PRIMCOORD
           2  1
  14  -.6898790 -.6898790 -.6898790
  14  .6898790 .6898790 .6898790
