 CRYSTAL
 PRIMVEC
.0000000 2.7240200 2.7240200
2.7240200 .0000000 2.7240200
2.7240200 2.7240200 .0000000
 PRIMCOORD
           2  1
  14  -.6810050 -.6810050 -.6810050
  14  .6810050 .6810050 .6810050

