 SLAB
 PRIMVEC
2.8052635 .0000000 .0000000
.0000000 3.9672415 .0000000
.0000000 .0000000 6.5723809
 PRIMCOORD
           3  1
  26  .0000000 .0000000 -1.0545708
  78  1.4026317 1.9836208 .0000000
  78  .0000000 .0000000 1.4026318
